# Solver information
# Time        	p_rgh_solver  	p_rgh_initial 	p_rgh_final   	p_rgh_iters   	p_rgh_converged
1             	GAMG	1.000000e+00	2.291420e-03	2	true
2             	GAMG	3.102230e-01	7.016160e-04	2	true
3             	GAMG	1.754260e-01	4.133050e-04	2	true
4             	GAMG	1.181470e-01	2.922680e-04	2	true
5             	GAMG	8.655230e-02	2.274710e-04	2	true
6             	GAMG	6.659810e-02	1.880110e-04	2	true
7             	GAMG	5.290030e-02	1.620720e-04	2	true
8             	GAMG	4.295080e-02	1.441490e-04	2	true
9             	GAMG	3.542430e-02	1.312140e-04	2	true
10            	GAMG	2.955500e-02	1.215670e-04	2	true
11            	GAMG	2.487090e-02	1.140420e-04	2	true
12            	GAMG	2.105900e-02	1.077690e-04	2	true
13            	GAMG	1.985330e-02	1.020620e-04	2	true
14            	GAMG	1.916330e-02	9.637310e-05	2	true
15            	GAMG	1.850580e-02	9.050450e-05	2	true
16            	GAMG	1.789490e-02	8.497790e-05	2	true
17            	GAMG	1.733760e-02	8.116710e-05	2	true
18            	GAMG	1.682870e-02	8.152040e-05	2	true
19            	GAMG	1.638950e-02	9.508720e-05	2	true
20            	GAMG	1.600730e-02	1.151570e-04	2	true
21            	GAMG	1.572320e-02	1.065320e-04	2	true
22            	GAMG	1.544780e-02	9.714910e-05	2	true
23            	GAMG	1.519960e-02	9.943750e-05	2	true
24            	GAMG	1.511480e-02	1.049180e-04	2	true
25            	GAMG	1.530000e-02	1.136870e-04	2	true
26            	GAMG	1.568440e-02	1.222360e-04	2	true
27            	GAMG	1.598600e-02	1.225410e-04	2	true
28            	GAMG	1.639640e-02	1.263260e-04	2	true
29            	GAMG	1.666230e-02	1.344490e-04	2	true
30            	GAMG	1.761860e-02	1.406510e-04	2	true
31            	GAMG	1.988620e-02	1.547860e-04	2	true
32            	GAMG	2.491750e-02	1.621930e-04	2	true
33            	GAMG	3.528640e-02	1.958550e-04	2	true
34            	GAMG	5.251310e-02	2.699580e-04	2	true
35            	GAMG	7.780220e-02	4.015550e-04	2	true
36            	GAMG	1.105840e-01	6.393880e-04	2	true
37            	GAMG	1.484840e-01	9.796370e-04	2	true
38            	GAMG	1.861660e-01	1.359430e-03	2	true
39            	GAMG	2.152080e-01	1.690920e-03	2	true
40            	GAMG	2.339010e-01	1.841570e-03	2	true
41            	GAMG	2.393120e-01	1.826400e-03	2	true
42            	GAMG	2.342810e-01	1.780120e-03	2	true
43            	GAMG	2.237780e-01	1.711500e-03	2	true
44            	GAMG	2.153640e-01	1.680850e-03	2	true
45            	GAMG	2.058830e-01	1.615750e-03	2	true
46            	GAMG	1.988590e-01	1.570850e-03	2	true
47            	GAMG	1.931150e-01	1.534220e-03	2	true
48            	GAMG	1.878500e-01	1.515550e-03	2	true
49            	GAMG	1.844750e-01	1.481330e-03	2	true
50            	GAMG	1.815300e-01	1.403250e-03	2	true
51            	GAMG	1.775260e-01	1.329490e-03	2	true
52            	GAMG	1.766700e-01	1.268860e-03	2	true
53            	GAMG	1.755690e-01	1.212310e-03	2	true
54            	GAMG	1.766780e-01	1.086120e-03	2	true
55            	GAMG	1.783050e-01	9.700510e-04	2	true
56            	GAMG	1.791810e-01	8.509700e-04	2	true
57            	GAMG	1.797050e-01	7.451810e-04	2	true
58            	GAMG	1.803690e-01	6.392580e-04	2	true
59            	GAMG	1.821940e-01	5.809040e-04	2	true
60            	GAMG	1.816460e-01	6.126280e-04	2	true
61            	GAMG	1.803280e-01	6.303370e-04	2	true
62            	GAMG	1.778840e-01	6.510650e-04	2	true
63            	GAMG	1.710870e-01	6.392560e-04	2	true
64            	GAMG	1.663150e-01	6.482950e-04	2	true
65            	GAMG	1.610330e-01	6.328780e-04	2	true
66            	GAMG	1.564990e-01	5.975080e-04	2	true
67            	GAMG	1.524630e-01	5.249860e-04	2	true
68            	GAMG	1.486470e-01	4.657360e-04	2	true
69            	GAMG	1.466390e-01	3.916960e-04	2	true
70            	GAMG	1.422780e-01	3.478020e-04	2	true
71            	GAMG	1.376040e-01	2.806130e-04	2	true
72            	GAMG	1.340160e-01	2.531900e-04	2	true
73            	GAMG	1.291950e-01	2.012140e-04	2	true
74            	GAMG	1.245080e-01	2.006890e-04	2	true
75            	GAMG	1.211530e-01	1.939330e-04	2	true
76            	GAMG	1.170780e-01	1.990170e-04	2	true
77            	GAMG	1.144930e-01	2.175220e-04	2	true
78            	GAMG	1.117610e-01	2.226740e-04	2	true
79            	GAMG	1.084710e-01	2.266700e-04	2	true
80            	GAMG	1.057770e-01	2.368690e-04	2	true
81            	GAMG	1.029210e-01	2.465610e-04	2	true
82            	GAMG	1.010930e-01	2.458070e-04	2	true
83            	GAMG	9.904200e-02	2.499350e-04	2	true
84            	GAMG	9.549800e-02	2.383530e-04	2	true
85            	GAMG	9.379950e-02	2.440600e-04	2	true
86            	GAMG	9.068080e-02	2.340650e-04	2	true
87            	GAMG	8.756860e-02	2.313530e-04	2	true
88            	GAMG	8.524730e-02	2.263880e-04	2	true
89            	GAMG	8.368340e-02	2.204380e-04	2	true
90            	GAMG	8.206680e-02	2.064850e-04	2	true
91            	GAMG	8.030090e-02	1.982240e-04	2	true
92            	GAMG	7.922470e-02	1.973180e-04	2	true
93            	GAMG	7.792660e-02	1.955680e-04	2	true
94            	GAMG	7.711870e-02	1.998990e-04	2	true
95            	GAMG	7.730630e-02	1.933590e-04	2	true
96            	GAMG	7.716070e-02	1.978660e-04	2	true
97            	GAMG	7.724710e-02	2.028640e-04	2	true
98            	GAMG	7.701080e-02	2.029460e-04	2	true
99            	GAMG	7.779320e-02	2.049500e-04	2	true
100           	GAMG	7.779380e-02	2.135000e-04	2	true
101           	GAMG	7.842770e-02	2.187130e-04	2	true
102           	GAMG	7.821500e-02	2.265950e-04	2	true
103           	GAMG	7.838940e-02	2.186760e-04	2	true
104           	GAMG	7.886210e-02	2.165590e-04	2	true
105           	GAMG	8.042170e-02	2.145670e-04	2	true
106           	GAMG	8.191360e-02	2.009450e-04	2	true
107           	GAMG	8.353980e-02	1.953520e-04	2	true
108           	GAMG	8.440880e-02	1.977940e-04	2	true
109           	GAMG	8.605880e-02	1.934360e-04	2	true
110           	GAMG	8.801460e-02	1.912070e-04	2	true
111           	GAMG	8.969480e-02	1.966170e-04	2	true
112           	GAMG	9.177150e-02	2.014000e-04	2	true
113           	GAMG	9.336810e-02	2.017850e-04	2	true
114           	GAMG	9.448680e-02	2.121970e-04	2	true
115           	GAMG	9.654830e-02	2.197860e-04	2	true
116           	GAMG	9.802270e-02	2.201370e-04	2	true
117           	GAMG	1.008530e-01	2.196340e-04	2	true
118           	GAMG	1.023740e-01	2.175720e-04	2	true
119           	GAMG	1.046170e-01	2.268810e-04	2	true
120           	GAMG	1.064850e-01	2.294820e-04	2	true
121           	GAMG	1.080520e-01	2.376800e-04	2	true
122           	GAMG	1.091290e-01	2.390050e-04	2	true
123           	GAMG	1.090440e-01	2.459300e-04	2	true
124           	GAMG	1.088600e-01	2.496730e-04	2	true
125           	GAMG	1.092070e-01	2.529580e-04	2	true
126           	GAMG	1.088750e-01	2.551400e-04	2	true
127           	GAMG	1.086840e-01	2.704010e-04	2	true
128           	GAMG	1.103490e-01	2.637390e-04	2	true
129           	GAMG	1.109830e-01	2.583000e-04	2	true
130           	GAMG	1.100200e-01	2.515940e-04	2	true
131           	GAMG	1.092770e-01	2.582350e-04	2	true
132           	GAMG	1.081580e-01	2.455800e-04	2	true
133           	GAMG	1.081250e-01	2.413750e-04	2	true
134           	GAMG	1.074630e-01	2.558310e-04	2	true
135           	GAMG	1.068850e-01	2.471270e-04	2	true
136           	GAMG	1.067640e-01	2.400110e-04	2	true
137           	GAMG	1.067040e-01	2.535190e-04	2	true
138           	GAMG	1.055440e-01	2.488690e-04	2	true
139           	GAMG	1.048340e-01	2.541710e-04	2	true
140           	GAMG	1.039410e-01	2.378960e-04	2	true
141           	GAMG	1.033600e-01	2.192080e-04	2	true
142           	GAMG	1.037760e-01	2.178620e-04	2	true
143           	GAMG	1.018220e-01	2.055970e-04	2	true
144           	GAMG	1.007670e-01	2.016470e-04	2	true
145           	GAMG	9.933870e-02	2.073630e-04	2	true
146           	GAMG	9.759960e-02	2.043380e-04	2	true
147           	GAMG	9.785720e-02	2.106900e-04	2	true
148           	GAMG	9.685930e-02	2.156430e-04	2	true
149           	GAMG	9.526610e-02	2.185180e-04	2	true
150           	GAMG	9.320590e-02	2.174850e-04	2	true
151           	GAMG	9.198850e-02	2.174290e-04	2	true
152           	GAMG	8.960970e-02	2.063910e-04	2	true
153           	GAMG	8.876800e-02	2.052980e-04	2	true
154           	GAMG	8.717980e-02	2.007940e-04	2	true
155           	GAMG	8.552770e-02	1.934900e-04	2	true
156           	GAMG	8.508950e-02	1.936480e-04	2	true
157           	GAMG	8.453530e-02	1.939350e-04	2	true
158           	GAMG	8.362360e-02	1.889880e-04	2	true
159           	GAMG	8.289230e-02	1.882080e-04	2	true
160           	GAMG	8.178780e-02	1.905830e-04	2	true
161           	GAMG	8.198430e-02	1.882230e-04	2	true
162           	GAMG	8.145050e-02	1.849240e-04	2	true
163           	GAMG	8.095130e-02	1.849950e-04	2	true
164           	GAMG	8.064500e-02	1.839620e-04	2	true
165           	GAMG	7.989300e-02	1.891760e-04	2	true
166           	GAMG	8.049250e-02	1.914010e-04	2	true
167           	GAMG	8.058610e-02	1.938690e-04	2	true
168           	GAMG	8.018060e-02	1.908000e-04	2	true
169           	GAMG	7.993450e-02	1.890700e-04	2	true
170           	GAMG	7.956130e-02	1.906570e-04	2	true
171           	GAMG	7.910740e-02	1.833750e-04	2	true
172           	GAMG	7.926910e-02	1.796390e-04	2	true
173           	GAMG	7.880400e-02	1.780740e-04	2	true
174           	GAMG	7.938920e-02	1.798950e-04	2	true
175           	GAMG	8.008220e-02	1.725680e-04	2	true
176           	GAMG	8.029040e-02	1.765780e-04	2	true
177           	GAMG	8.054080e-02	1.727880e-04	2	true
178           	GAMG	8.053730e-02	1.754420e-04	2	true
179           	GAMG	8.062200e-02	1.655620e-04	2	true
180           	GAMG	8.132230e-02	1.693280e-04	2	true
181           	GAMG	8.200090e-02	1.657900e-04	2	true
182           	GAMG	8.158440e-02	1.694750e-04	2	true
183           	GAMG	8.106220e-02	1.642020e-04	2	true
184           	GAMG	8.186840e-02	1.699630e-04	2	true
185           	GAMG	8.173990e-02	1.629590e-04	2	true
186           	GAMG	8.176140e-02	1.605690e-04	2	true
187           	GAMG	8.243780e-02	1.639340e-04	2	true
188           	GAMG	8.366990e-02	1.639740e-04	2	true
189           	GAMG	8.350440e-02	1.640670e-04	2	true
190           	GAMG	8.399410e-02	1.665420e-04	2	true
191           	GAMG	8.345050e-02	1.713680e-04	2	true
192           	GAMG	8.333320e-02	1.693350e-04	2	true
193           	GAMG	8.358070e-02	1.694970e-04	2	true
194           	GAMG	8.293530e-02	1.730650e-04	2	true
195           	GAMG	8.262750e-02	1.756050e-04	2	true
196           	GAMG	8.275480e-02	1.867580e-04	2	true
197           	GAMG	8.327870e-02	1.891320e-04	2	true
198           	GAMG	8.425540e-02	1.909660e-04	2	true
199           	GAMG	8.404940e-02	1.854640e-04	2	true
200           	GAMG	8.499140e-02	1.854220e-04	2	true
201           	GAMG	8.555070e-02	1.861200e-04	2	true
202           	GAMG	8.558260e-02	1.836980e-04	2	true
203           	GAMG	8.644510e-02	1.874500e-04	2	true
204           	GAMG	8.629410e-02	1.832990e-04	2	true
205           	GAMG	8.720030e-02	1.900060e-04	2	true
206           	GAMG	8.745090e-02	1.887400e-04	2	true
207           	GAMG	8.730300e-02	1.876190e-04	2	true
208           	GAMG	8.671290e-02	1.897180e-04	2	true
209           	GAMG	8.595990e-02	1.904700e-04	2	true
210           	GAMG	8.501970e-02	1.910750e-04	2	true
211           	GAMG	8.435260e-02	1.890060e-04	2	true
212           	GAMG	8.314820e-02	1.872460e-04	2	true
213           	GAMG	8.133900e-02	1.976210e-04	2	true
214           	GAMG	8.129590e-02	1.864190e-04	2	true
215           	GAMG	8.060140e-02	1.778670e-04	2	true
216           	GAMG	8.107770e-02	1.746250e-04	2	true
217           	GAMG	8.137620e-02	1.770420e-04	2	true
218           	GAMG	8.122910e-02	1.691350e-04	2	true
219           	GAMG	8.082760e-02	1.700620e-04	2	true
220           	GAMG	7.998190e-02	1.740570e-04	2	true
221           	GAMG	7.972260e-02	1.830810e-04	2	true
222           	GAMG	7.881910e-02	1.854730e-04	2	true
223           	GAMG	7.849770e-02	1.875800e-04	2	true
224           	GAMG	7.751150e-02	1.894090e-04	2	true
225           	GAMG	7.795990e-02	1.966230e-04	2	true
226           	GAMG	7.864010e-02	2.070800e-04	2	true
227           	GAMG	7.912890e-02	2.041610e-04	2	true
228           	GAMG	7.905300e-02	2.047390e-04	2	true
229           	GAMG	7.906060e-02	2.026050e-04	2	true
230           	GAMG	7.922790e-02	1.972670e-04	2	true
231           	GAMG	7.935370e-02	2.005530e-04	2	true
232           	GAMG	7.936180e-02	1.952430e-04	2	true
233           	GAMG	7.926280e-02	1.939630e-04	2	true
234           	GAMG	7.965730e-02	1.969000e-04	2	true
235           	GAMG	7.989730e-02	1.976200e-04	2	true
236           	GAMG	7.985200e-02	1.865410e-04	2	true
237           	GAMG	8.037270e-02	1.849770e-04	2	true
238           	GAMG	8.086130e-02	1.865890e-04	2	true
239           	GAMG	8.146250e-02	1.826940e-04	2	true
240           	GAMG	8.244750e-02	1.804180e-04	2	true
241           	GAMG	8.324480e-02	1.788250e-04	2	true
242           	GAMG	8.352770e-02	1.813540e-04	2	true
243           	GAMG	8.226210e-02	1.709440e-04	2	true
244           	GAMG	8.133490e-02	1.755500e-04	2	true
245           	GAMG	8.181030e-02	1.781540e-04	2	true
246           	GAMG	8.105400e-02	1.685940e-04	2	true
247           	GAMG	8.137000e-02	1.685720e-04	2	true
248           	GAMG	8.056950e-02	1.602980e-04	2	true
249           	GAMG	7.980640e-02	1.637120e-04	2	true
250           	GAMG	7.955780e-02	1.614250e-04	2	true
251           	GAMG	7.900910e-02	1.646670e-04	2	true
252           	GAMG	7.970610e-02	1.621490e-04	2	true
253           	GAMG	8.008500e-02	1.607250e-04	2	true
254           	GAMG	7.967230e-02	1.553010e-04	2	true
255           	GAMG	8.062180e-02	1.535510e-04	2	true
256           	GAMG	8.131010e-02	1.534810e-04	2	true
257           	GAMG	8.178960e-02	1.561290e-04	2	true
258           	GAMG	8.194660e-02	1.581920e-04	2	true
259           	GAMG	8.104360e-02	1.571630e-04	2	true
260           	GAMG	7.977690e-02	1.535240e-04	2	true
261           	GAMG	7.929770e-02	1.566320e-04	2	true
262           	GAMG	7.874360e-02	1.613310e-04	2	true
263           	GAMG	7.850800e-02	1.646020e-04	2	true
264           	GAMG	7.767130e-02	1.611820e-04	2	true
265           	GAMG	7.772480e-02	1.697020e-04	2	true
266           	GAMG	7.744710e-02	1.716200e-04	2	true
267           	GAMG	7.689300e-02	1.741280e-04	2	true
268           	GAMG	7.618920e-02	1.718140e-04	2	true
269           	GAMG	7.553900e-02	1.693830e-04	2	true
270           	GAMG	7.549320e-02	1.685610e-04	2	true
271           	GAMG	7.509880e-02	1.644340e-04	2	true
272           	GAMG	7.539770e-02	1.628700e-04	2	true
273           	GAMG	7.500940e-02	1.600970e-04	2	true
274           	GAMG	7.438020e-02	1.559530e-04	2	true
275           	GAMG	7.411380e-02	1.633760e-04	2	true
276           	GAMG	7.368240e-02	1.610190e-04	2	true
277           	GAMG	7.357180e-02	1.653590e-04	2	true
278           	GAMG	7.387700e-02	1.713390e-04	2	true
279           	GAMG	7.405030e-02	1.727880e-04	2	true
280           	GAMG	7.488950e-02	1.758020e-04	2	true
281           	GAMG	7.503170e-02	1.772070e-04	2	true
282           	GAMG	7.539150e-02	1.749770e-04	2	true
283           	GAMG	7.629400e-02	1.743980e-04	2	true
284           	GAMG	7.662810e-02	1.818160e-04	2	true
285           	GAMG	7.729230e-02	1.760390e-04	2	true
286           	GAMG	7.759150e-02	1.832620e-04	2	true
287           	GAMG	7.913760e-02	1.886290e-04	2	true
288           	GAMG	7.914140e-02	1.880750e-04	2	true
289           	GAMG	7.882280e-02	1.945560e-04	2	true
290           	GAMG	7.862460e-02	1.950790e-04	2	true
291           	GAMG	7.823610e-02	1.925600e-04	2	true
292           	GAMG	7.771010e-02	1.860920e-04	2	true
293           	GAMG	7.763290e-02	1.796490e-04	2	true
294           	GAMG	7.704400e-02	1.762720e-04	2	true
295           	GAMG	7.685540e-02	1.705130e-04	2	true
296           	GAMG	7.703040e-02	1.618360e-04	2	true
297           	GAMG	7.762040e-02	1.608320e-04	2	true
298           	GAMG	7.714490e-02	1.643360e-04	2	true
299           	GAMG	7.706130e-02	1.690850e-04	2	true
300           	GAMG	7.820210e-02	1.760900e-04	2	true
301           	GAMG	7.766450e-02	1.832780e-04	2	true
302           	GAMG	7.812060e-02	1.775530e-04	2	true
303           	GAMG	7.804830e-02	1.736780e-04	2	true
304           	GAMG	7.815880e-02	1.802190e-04	2	true
305           	GAMG	7.715530e-02	1.728700e-04	2	true
306           	GAMG	7.634230e-02	1.732960e-04	2	true
307           	GAMG	7.603160e-02	1.723850e-04	2	true
308           	GAMG	7.605200e-02	1.722640e-04	2	true
309           	GAMG	7.507730e-02	1.718130e-04	2	true
310           	GAMG	7.486040e-02	1.721070e-04	2	true
311           	GAMG	7.440320e-02	1.659890e-04	2	true
312           	GAMG	7.442550e-02	1.659420e-04	2	true
313           	GAMG	7.495830e-02	1.625970e-04	2	true
314           	GAMG	7.472110e-02	1.592210e-04	2	true
315           	GAMG	7.435370e-02	1.567170e-04	2	true
316           	GAMG	7.450880e-02	1.562730e-04	2	true
317           	GAMG	7.423980e-02	1.542520e-04	2	true
318           	GAMG	7.356310e-02	1.538930e-04	2	true
319           	GAMG	7.345530e-02	1.548190e-04	2	true
320           	GAMG	7.373200e-02	1.536370e-04	2	true
321           	GAMG	7.295220e-02	1.584230e-04	2	true
322           	GAMG	7.312780e-02	1.600190e-04	2	true
323           	GAMG	7.405410e-02	1.575590e-04	2	true
324           	GAMG	7.438190e-02	1.589950e-04	2	true
325           	GAMG	7.466040e-02	1.583750e-04	2	true
326           	GAMG	7.490230e-02	1.592350e-04	2	true
327           	GAMG	7.387740e-02	1.642540e-04	2	true
328           	GAMG	7.324570e-02	1.614100e-04	2	true
329           	GAMG	7.281510e-02	1.593150e-04	2	true
330           	GAMG	7.242550e-02	1.595850e-04	2	true
331           	GAMG	7.220390e-02	1.568860e-04	2	true
332           	GAMG	7.182820e-02	1.525160e-04	2	true
333           	GAMG	7.094450e-02	1.534390e-04	2	true
334           	GAMG	7.097780e-02	1.569240e-04	2	true
335           	GAMG	7.122520e-02	1.574090e-04	2	true
336           	GAMG	7.224630e-02	1.572220e-04	2	true
337           	GAMG	7.217380e-02	1.637280e-04	2	true
338           	GAMG	7.258950e-02	1.601650e-04	2	true
339           	GAMG	7.329080e-02	1.632100e-04	2	true
340           	GAMG	7.403810e-02	1.563250e-04	2	true
341           	GAMG	7.422860e-02	1.666150e-04	2	true
342           	GAMG	7.488220e-02	1.622080e-04	2	true
343           	GAMG	7.541360e-02	1.580820e-04	2	true
344           	GAMG	7.494800e-02	1.590210e-04	2	true
345           	GAMG	7.378290e-02	1.631630e-04	2	true
346           	GAMG	7.360730e-02	1.669420e-04	2	true
347           	GAMG	7.374160e-02	1.609940e-04	2	true
348           	GAMG	7.389510e-02	1.619560e-04	2	true
349           	GAMG	7.454700e-02	1.609770e-04	2	true
350           	GAMG	7.366370e-02	1.559430e-04	2	true
351           	GAMG	7.374920e-02	1.598820e-04	2	true
352           	GAMG	7.324770e-02	1.574530e-04	2	true
353           	GAMG	7.364350e-02	1.586560e-04	2	true
354           	GAMG	7.378310e-02	1.620490e-04	2	true
355           	GAMG	7.389220e-02	1.618940e-04	2	true
356           	GAMG	7.453420e-02	1.678070e-04	2	true
357           	GAMG	7.521070e-02	1.679640e-04	2	true
358           	GAMG	7.579780e-02	1.761680e-04	2	true
359           	GAMG	7.530340e-02	1.715640e-04	2	true
360           	GAMG	7.632130e-02	1.762130e-04	2	true
361           	GAMG	7.725740e-02	1.762430e-04	2	true
362           	GAMG	7.804720e-02	1.806040e-04	2	true
363           	GAMG	7.918950e-02	1.820290e-04	2	true
364           	GAMG	7.903480e-02	1.734210e-04	2	true
365           	GAMG	7.912090e-02	1.816150e-04	2	true
366           	GAMG	7.864820e-02	1.760780e-04	2	true
367           	GAMG	7.878190e-02	1.765510e-04	2	true
368           	GAMG	7.886360e-02	1.767860e-04	2	true
369           	GAMG	7.934380e-02	1.754690e-04	2	true
370           	GAMG	7.955900e-02	1.714260e-04	2	true
371           	GAMG	7.934370e-02	1.712210e-04	2	true
372           	GAMG	7.906270e-02	1.730120e-04	2	true
373           	GAMG	7.865830e-02	1.690790e-04	2	true
374           	GAMG	7.819680e-02	1.704900e-04	2	true
375           	GAMG	7.832990e-02	1.701290e-04	2	true
376           	GAMG	7.893790e-02	1.675110e-04	2	true
377           	GAMG	7.909070e-02	1.660080e-04	2	true
378           	GAMG	7.942710e-02	1.638430e-04	2	true
379           	GAMG	7.927100e-02	1.625210e-04	2	true
380           	GAMG	8.032220e-02	1.662060e-04	2	true
381           	GAMG	8.059040e-02	1.656540e-04	2	true
382           	GAMG	7.994950e-02	1.645230e-04	2	true
383           	GAMG	7.988520e-02	1.615140e-04	2	true
384           	GAMG	8.014470e-02	1.653930e-04	2	true
385           	GAMG	7.899130e-02	1.639050e-04	2	true
386           	GAMG	7.912400e-02	1.625360e-04	2	true
387           	GAMG	7.731620e-02	1.651710e-04	2	true
388           	GAMG	7.736360e-02	1.689610e-04	2	true
389           	GAMG	7.664960e-02	1.735440e-04	2	true
390           	GAMG	7.670990e-02	1.684410e-04	2	true
391           	GAMG	7.703690e-02	1.729760e-04	2	true
392           	GAMG	7.653100e-02	1.738470e-04	2	true
393           	GAMG	7.641540e-02	1.738880e-04	2	true
394           	GAMG	7.594350e-02	1.736630e-04	2	true
395           	GAMG	7.591130e-02	1.669570e-04	2	true
396           	GAMG	7.658820e-02	1.672560e-04	2	true
397           	GAMG	7.603360e-02	1.649570e-04	2	true
398           	GAMG	7.543450e-02	1.616130e-04	2	true
399           	GAMG	7.603280e-02	1.610860e-04	2	true
400           	GAMG	7.691150e-02	1.614860e-04	2	true
401           	GAMG	7.699660e-02	1.659800e-04	2	true
402           	GAMG	7.786080e-02	1.650600e-04	2	true
403           	GAMG	7.880980e-02	1.605520e-04	2	true
404           	GAMG	7.936180e-02	1.666530e-04	2	true
405           	GAMG	7.914190e-02	1.659390e-04	2	true
406           	GAMG	7.842760e-02	1.598150e-04	2	true
407           	GAMG	7.853800e-02	1.627100e-04	2	true
408           	GAMG	7.719170e-02	1.589850e-04	2	true
409           	GAMG	7.829820e-02	1.652160e-04	2	true
410           	GAMG	7.905870e-02	1.647140e-04	2	true
411           	GAMG	7.891710e-02	1.612610e-04	2	true
412           	GAMG	7.918110e-02	1.620900e-04	2	true
413           	GAMG	7.981740e-02	1.644340e-04	2	true
414           	GAMG	7.913600e-02	1.646240e-04	2	true
415           	GAMG	7.983660e-02	1.620940e-04	2	true
416           	GAMG	7.929030e-02	1.652770e-04	2	true
417           	GAMG	7.953390e-02	1.702720e-04	2	true
418           	GAMG	8.050010e-02	1.713790e-04	2	true
419           	GAMG	8.138080e-02	1.805000e-04	2	true
420           	GAMG	8.286110e-02	1.810080e-04	2	true
421           	GAMG	8.373290e-02	1.811980e-04	2	true
422           	GAMG	8.451860e-02	1.859540e-04	2	true
423           	GAMG	8.500140e-02	1.907370e-04	2	true
424           	GAMG	8.528970e-02	1.880630e-04	2	true
425           	GAMG	8.494840e-02	1.825370e-04	2	true
426           	GAMG	8.500340e-02	1.872270e-04	2	true
427           	GAMG	8.436300e-02	1.829170e-04	2	true
428           	GAMG	8.396850e-02	1.730400e-04	2	true
429           	GAMG	8.436930e-02	1.703870e-04	2	true
430           	GAMG	8.394500e-02	1.679510e-04	2	true
431           	GAMG	8.389670e-02	1.710250e-04	2	true
432           	GAMG	8.363950e-02	1.705700e-04	2	true
433           	GAMG	8.283330e-02	1.673190e-04	2	true
434           	GAMG	8.203160e-02	1.669050e-04	2	true
435           	GAMG	8.066960e-02	1.693810e-04	2	true
436           	GAMG	7.974330e-02	1.715130e-04	2	true
437           	GAMG	7.912860e-02	1.707630e-04	2	true
438           	GAMG	7.798610e-02	1.703340e-04	2	true
439           	GAMG	7.808510e-02	1.632670e-04	2	true
440           	GAMG	7.738300e-02	1.658660e-04	2	true
441           	GAMG	7.631120e-02	1.582480e-04	2	true
442           	GAMG	7.453500e-02	1.522860e-04	2	true
443           	GAMG	7.307620e-02	1.527790e-04	2	true
444           	GAMG	7.203390e-02	1.510610e-04	2	true
445           	GAMG	7.155860e-02	1.484750e-04	2	true
446           	GAMG	7.085350e-02	1.506950e-04	2	true
447           	GAMG	7.023690e-02	1.449610e-04	2	true
448           	GAMG	6.989800e-02	1.442830e-04	2	true
449           	GAMG	6.887880e-02	1.436390e-04	2	true
450           	GAMG	6.873300e-02	1.379770e-04	2	true
451           	GAMG	6.819600e-02	1.344930e-04	2	true
452           	GAMG	6.705520e-02	1.352410e-04	2	true
453           	GAMG	6.640800e-02	1.375260e-04	2	true
454           	GAMG	6.596780e-02	1.408400e-04	2	true
455           	GAMG	6.571030e-02	1.419880e-04	2	true
456           	GAMG	6.551780e-02	1.426270e-04	2	true
457           	GAMG	6.581850e-02	1.515770e-04	2	true
458           	GAMG	6.627850e-02	1.554530e-04	2	true
459           	GAMG	6.663570e-02	1.527430e-04	2	true
460           	GAMG	6.757880e-02	1.614340e-04	2	true
461           	GAMG	6.892150e-02	1.645280e-04	2	true
462           	GAMG	6.941040e-02	1.654750e-04	2	true
463           	GAMG	7.035060e-02	1.610650e-04	2	true
464           	GAMG	7.139320e-02	1.582890e-04	2	true
465           	GAMG	7.146740e-02	1.632080e-04	2	true
466           	GAMG	7.239430e-02	1.672100e-04	2	true
467           	GAMG	7.392710e-02	1.644430e-04	2	true
468           	GAMG	7.457190e-02	1.687350e-04	2	true
469           	GAMG	7.412510e-02	1.658900e-04	2	true
470           	GAMG	7.427790e-02	1.640080e-04	2	true
471           	GAMG	7.438010e-02	1.578930e-04	2	true
472           	GAMG	7.526200e-02	1.583560e-04	2	true
473           	GAMG	7.575220e-02	1.686560e-04	2	true
474           	GAMG	7.597700e-02	1.751100e-04	2	true
475           	GAMG	7.626330e-02	1.822770e-04	2	true
476           	GAMG	7.652470e-02	1.779740e-04	2	true
477           	GAMG	7.737300e-02	1.797470e-04	2	true
478           	GAMG	7.744820e-02	1.788960e-04	2	true
479           	GAMG	7.740060e-02	1.766270e-04	2	true
480           	GAMG	7.778210e-02	1.818610e-04	2	true
481           	GAMG	7.676820e-02	1.754840e-04	2	true
482           	GAMG	7.710800e-02	1.790750e-04	2	true
483           	GAMG	7.863930e-02	1.772070e-04	2	true
484           	GAMG	7.887940e-02	1.683980e-04	2	true
485           	GAMG	7.876250e-02	1.759990e-04	2	true
486           	GAMG	7.741250e-02	1.736970e-04	2	true
487           	GAMG	7.683990e-02	1.743790e-04	2	true
488           	GAMG	7.644120e-02	1.690330e-04	2	true
489           	GAMG	7.527770e-02	1.705990e-04	2	true
490           	GAMG	7.477880e-02	1.693630e-04	2	true
491           	GAMG	7.483460e-02	1.664330e-04	2	true
492           	GAMG	7.493220e-02	1.612410e-04	2	true
493           	GAMG	7.545440e-02	1.640980e-04	2	true
494           	GAMG	7.527500e-02	1.630820e-04	2	true
495           	GAMG	7.465620e-02	1.581860e-04	2	true
496           	GAMG	7.345080e-02	1.483180e-04	2	true
497           	GAMG	7.283580e-02	1.527920e-04	2	true
498           	GAMG	7.325060e-02	1.580740e-04	2	true
499           	GAMG	7.264620e-02	1.620430e-04	2	true
500           	GAMG	7.134980e-02	1.607230e-04	2	true
501           	GAMG	7.038200e-02	1.534090e-04	2	true
502           	GAMG	6.871050e-02	1.606110e-04	2	true
503           	GAMG	6.814490e-02	1.599850e-04	2	true
504           	GAMG	6.690900e-02	1.597150e-04	2	true
505           	GAMG	6.636290e-02	1.625790e-04	2	true
506           	GAMG	6.557300e-02	1.608790e-04	2	true
507           	GAMG	6.541060e-02	1.565900e-04	2	true
508           	GAMG	6.464770e-02	1.597190e-04	2	true
509           	GAMG	6.449610e-02	1.596370e-04	2	true
510           	GAMG	6.457260e-02	1.533150e-04	2	true
511           	GAMG	6.493350e-02	1.559530e-04	2	true
512           	GAMG	6.500870e-02	1.557310e-04	2	true
513           	GAMG	6.457070e-02	1.493300e-04	2	true
514           	GAMG	6.518510e-02	1.507870e-04	2	true
515           	GAMG	6.450960e-02	1.421340e-04	2	true
516           	GAMG	6.489030e-02	1.521660e-04	2	true
517           	GAMG	6.543340e-02	1.491880e-04	2	true
518           	GAMG	6.564200e-02	1.557470e-04	2	true
519           	GAMG	6.648130e-02	1.628690e-04	2	true
520           	GAMG	6.680280e-02	1.661510e-04	2	true
521           	GAMG	6.653060e-02	1.664370e-04	2	true
522           	GAMG	6.732700e-02	1.659260e-04	2	true
523           	GAMG	6.767470e-02	1.709010e-04	2	true
524           	GAMG	6.873970e-02	1.656580e-04	2	true
525           	GAMG	7.028160e-02	1.665730e-04	2	true
526           	GAMG	7.063050e-02	1.735360e-04	2	true
527           	GAMG	7.177960e-02	1.751460e-04	2	true
528           	GAMG	7.242320e-02	1.738840e-04	2	true
529           	GAMG	7.226430e-02	1.735410e-04	2	true
530           	GAMG	7.271730e-02	1.700410e-04	2	true
531           	GAMG	7.262890e-02	1.695380e-04	2	true
532           	GAMG	7.279590e-02	1.593660e-04	2	true
533           	GAMG	7.263760e-02	1.534100e-04	2	true
534           	GAMG	7.237930e-02	1.545260e-04	2	true
535           	GAMG	7.197510e-02	1.582680e-04	2	true
536           	GAMG	7.205120e-02	1.668310e-04	2	true
537           	GAMG	7.183280e-02	1.685560e-04	2	true
538           	GAMG	7.210710e-02	1.643030e-04	2	true
539           	GAMG	7.134830e-02	1.631180e-04	2	true
540           	GAMG	7.122400e-02	1.591440e-04	2	true
541           	GAMG	7.042330e-02	1.573280e-04	2	true
542           	GAMG	6.952130e-02	1.551510e-04	2	true
543           	GAMG	6.844700e-02	1.533570e-04	2	true
544           	GAMG	6.780610e-02	1.468740e-04	2	true
545           	GAMG	6.709420e-02	1.477840e-04	2	true
546           	GAMG	6.665680e-02	1.513270e-04	2	true
547           	GAMG	6.731910e-02	1.530080e-04	2	true
548           	GAMG	6.788370e-02	1.569370e-04	2	true
549           	GAMG	6.832330e-02	1.614370e-04	2	true
550           	GAMG	6.821340e-02	1.590890e-04	2	true
551           	GAMG	6.828890e-02	1.628420e-04	2	true
552           	GAMG	6.848920e-02	1.626500e-04	2	true
553           	GAMG	6.844250e-02	1.614770e-04	2	true
554           	GAMG	6.786860e-02	1.676980e-04	2	true
555           	GAMG	6.822900e-02	1.661010e-04	2	true
556           	GAMG	6.899160e-02	1.616120e-04	2	true
557           	GAMG	6.925290e-02	1.615830e-04	2	true
558           	GAMG	6.987210e-02	1.569970e-04	2	true
559           	GAMG	6.917250e-02	1.562020e-04	2	true
560           	GAMG	6.901710e-02	1.565060e-04	2	true
561           	GAMG	6.926980e-02	1.547960e-04	2	true
562           	GAMG	6.926730e-02	1.543200e-04	2	true
563           	GAMG	6.934820e-02	1.506730e-04	2	true